200
Lattice="10.445520167570994 0.0 0.0 0.0 10.445520167570994 0.0 0.0 0.0 10.445520167570994" Properties=species:S:1:pos:R:3 timestep=5000 pbc="T T T"
C        5.01288869       6.17632117       0.25574289
C        2.91717264       7.65756905       0.16869306
C        7.15267439       3.02739377       7.21238098
C        1.02597153       2.66313759      10.22713568
C        6.08070288       9.36891085       9.87660491
C        5.36864222       9.05480361       5.85296965
C        4.80544066       9.29863339       0.23263322
C        1.82117644       0.98668070       6.68765028
C        4.30753405       8.96860718       8.27681082
C        9.32469496       1.88126952       6.76165679
C        2.86773400       4.39026257       6.45367063
C        9.62575574       8.05683862       5.72354966
C        3.86052846       2.48609647       5.06031135
C        1.11556066       9.26672233       5.84692170
C        7.68551082       4.28398985      10.31891002
C        6.95526450      10.29972160       7.35863916
C        1.09799130       7.54306526       3.26695133
C        9.63256622       8.74389270       0.22274758
C        0.10241571       2.28486353       0.84063353
C        9.67844295       8.88061412       4.29279542
C        9.14710023       4.19528649       6.88347244
C        3.44137063       9.64233279       4.79892266
C        5.00284010       1.14553931       0.90914778
C        1.54817233       2.79381105       5.10806827
C        3.27588225      10.03075990       8.26882000
C        3.48066668       9.92392312       1.81579700
C        5.82252096       3.79274748       9.52650241
C        2.61003257       0.15284930       0.94198641
C        9.83911594       1.52466991       2.87451314
C        0.18364791       2.88880261       9.12170717
C        6.64798864       6.85682592       6.69664387
C        7.81595448      10.06271274       6.04564772
C        6.22304399       4.45637227       4.89576307
C        3.28410288       7.43522571       1.61090812
C        8.68414433       1.53966967       8.04980878
C        1.86505807       9.86835295       0.09173235
C        0.21873128       4.22106604       2.53306998
C        0.37323724       5.51073263       3.06808952
C        6.36427786       8.04216266      10.36583129
C        5.90820556       8.38140182       4.70728411
C        6.35319517       7.99011263       7.93047916
C        8.08482216       7.38333237       1.48898801
C        4.49435218       0.60571587       6.67733010
C        7.48720262       6.96910482       3.89952159
C        3.18257242       1.61800063       2.54289921
C        1.77071413       8.47833625      10.42446200
C        8.70454443       6.76696311       7.38715543
C        3.26039155       1.53684938       3.96863960
C        0.79238149       5.57313417       7.45934442
C        3.11031031       4.58088287       8.02342340
C        1.33537619       0.40159056       9.28423946
C        0.46164916       7.96170082       0.04392258
C        1.14841182       8.65338227       8.26702337
C        0.53759123       6.69164047       0.72193168
C        6.03651833       0.33723048       4.53018031
C        9.05512742       2.53351913       2.19423819
C        2.19444710       2.24211001       7.30865734
C        5.96069430       3.62342560       1.55551553
C        9.18590534       9.22260045       7.84364555
C        5.44274274       4.55446615       6.16965693
C        5.56888284       5.37098201       3.03168688
C        4.67943635      10.27218721       5.21225189
C        2.07909723       9.64232234       8.88884519
C        7.82743410       2.17911308       1.83061919
C        9.41149724       5.81145915       0.43119525
C        4.53412872       6.90491710       1.71168650
C        4.48223538       5.50500848       6.53308792
C        5.86855437       7.59799825       2.51726591
C        4.53890232       3.22575420       4.01246900
C        2.52194550       9.34531442       6.02034867
C        9.39254906       7.72621701       8.43698243
C        5.36059917       1.20411778       8.85619249
C        2.05075853       3.60456099       4.02424110
C        7.94637724       5.01115474       2.28286843
C        9.98552035       5.49838602       6.58814625
C        0.70554266       7.92505793       5.87260723
C        9.00277448       6.67974302       5.89065709
C        6.15608820       0.71794358       3.09483005
C        9.71273559       1.59121831       4.31815715
C        2.36052043       6.37020047       2.14305515
C        2.49411863       0.30290964       4.23279636
C        3.67028420       3.39517009       8.79900327
C        3.33080480       4.13610218      10.13015947
C        9.62357263      10.14523235       0.00905455
C        5.31851417       5.06376882       8.98173720
C        5.35216963       8.67760543       3.14377776
C       10.25515056       3.16248569       6.89079475
C        7.78707261       4.41390078       7.67640233
C        2.80191678       6.93019526       5.39163281
C        9.83172051       3.54992047       1.35347828
C        7.89073395       6.23650826       5.04497733
C        0.60082736      10.20162772       2.17312780
C        8.66295037       3.76945397       5.58295296
C        5.65236344       0.42708180       7.62267057
C        9.96041977       0.75462198       6.24894888
C        7.35958970       2.07565020       0.27571786
C        9.53106710       6.07156305       4.64916523
C        6.63276951       5.95093819       8.89207285
C        1.06094104       7.06198638       7.09461819
C        9.66769451       2.99552449       4.79109896
C        0.35353803       7.42238817       8.83755768
C        8.82708083       9.06794408       6.43002197
C        2.39995227       3.88345638       1.74140400
C        4.94208896       2.99404123       2.62343417
C        3.34195017       5.08244541       1.65396455
C        6.13028777       1.61005159       5.26017594
C        4.07921587       8.50564084       9.73377287
C        3.84182054       0.71301538       9.17654615
C        1.33363179       3.39937964       2.71254490
C        5.49989018       1.64996392       2.29143376
C        0.28768320       3.55088146       5.53769252
C        1.73612902       4.46054003       7.50393634
C        1.36791398      10.07871528       3.39888870
C        8.39121016       9.61982269       2.30199418
C        3.13702995       6.33647189       8.51822769
C        2.86876810       2.13504343       8.60682659
C        3.28489674       6.17565266       3.44535037
C        1.75176596       0.87869700       2.06238439
C        8.22694391       6.35440685       2.73283010
C        9.65992304       1.50341327       9.08582681
C        9.56465990       3.92301356       9.22105451
C        9.79169328       5.27656496       9.42781314
C        1.85844606       4.14048929       0.21556733
C        5.70890504       9.33674909       8.31387153
C        8.16458416       0.08236867       9.81696099
C        6.24303671       7.27703875       9.04755442
C        5.03123103       2.06001326       6.13541652
C        1.03840901       3.22886697       7.78437767
C        8.06517414       4.17965999       3.49583357
C        9.63251400       0.90182861       0.80765180
C        3.83109299       8.66690922       3.68326798
C        5.26972314       2.75587292       8.47011562
C        7.69784698      10.36334526       4.76349145
C        3.25125172       5.26846968       5.57602758
C        2.77369298       3.01705271       5.97803387
C        3.76819006       7.22034047       4.29177176
C        7.39449863       1.91793329       4.99236325
C        2.69716910       4.96388876       4.23927258
C        0.19209625       0.72064688       4.86072880
C        5.20408349       7.29204897       9.94884613
C        7.21272569       8.34934452       4.21132037
C        0.60350977       5.84114532       9.02122127
C        8.72738878       1.57705419      10.22952770
C        1.12193243       5.59692906       4.46887556
C        0.96521725       6.35993253       2.09831698
C        3.16429276       1.19249192      10.41225119
C        9.18512192       8.41056571       1.83398265
C        4.52641993       8.08990913       6.73826927
C        0.81410922       1.93701726       2.23394162
C        2.94152115       0.11185376       6.97243694
C        9.33968428       0.28940254       2.12090020
C        8.22901212       1.28708655       4.20694369
C        0.15838647       9.70586244       7.94337938
C        1.53871913       5.75982695      10.24479905
C        1.93854231       1.72331236       9.68784392
C        3.99445048       2.15778333       0.57105450
C        6.88648075      10.35114489       0.11374022
C        4.36567382       5.61519828       2.63222930
C        0.21259872       5.00712277       5.39687646
C        9.43480119       3.63612735       3.42641264
C        7.33260892       5.72967073      10.20179485
C        8.01086788       2.47342606       6.11144405
C        7.71116502       2.55208082       8.53554636
C        8.30597472       6.60462928       0.04590869
C        7.64647591       4.67370176       4.73916384
C        4.74629813      10.17620332       1.21414548
C        7.51567711       5.86860660       7.69221684
C        4.42314507       5.46040611       7.97955221
C        5.92554513       6.68282445       3.64897534
C        2.91877081       8.75677203       2.48358955
C        8.16669415       3.83081096       9.00488447
C        8.76118004       7.79998327       9.73571574
C        7.17720047       9.58984405       1.52289417
C        1.38397919       7.01669461       4.66340248
C        8.25409182      10.37470999       8.30275750
C        9.58572851       6.40794014       3.31794636
C        0.47548948      10.44296102       6.80788866
C        6.36677434       5.68695900       0.60843902
C        2.41042912       7.37833941       7.62847828
C        1.50607688       1.32111805       5.06776946
C        9.96318783       7.90947322       3.10026172
C       10.35313999       0.18422033       9.23700482
C        5.15542826       6.87838548       6.14545466
C        5.42802500       4.32139526       3.89697288
C        8.83724432       4.59139106       0.92803537
C        7.47850150       1.27116758       2.88426926
C        6.50902144       3.44515191       0.30247615
C        6.86574640       7.99153322       1.45977189
C        1.54340917       8.77562619       2.56193095
C        3.72333700       5.38651450       0.20109507
C        6.51201930       5.04335827       1.98099290
C        5.62099554       3.12747230       6.90710021
C        8.29483979       9.39300866       3.77088501
C        6.30995071       1.16004813      10.35787181
C        3.11997242       7.82833242       6.50859317
C        5.85717920       9.82529652       2.37967751
C        0.39789911       9.82950606       4.51707119
C        5.10120557       7.10337153       4.77193143
C        3.51408189       2.74555275       1.82760044
C        2.91439414       6.31097437       9.96507847
