200
Lattice="11.845380236533616 0.0 0.0 0.0 11.845380236533616 0.0 0.0 0.0 11.845380236533616" Properties=species:S:1:pos:R:3 timestep=5000 pbc="T T T"
C        8.36311089      11.57692838       6.53796286
C        8.87394291       3.74655162       5.01590257
C        2.38930796       6.34469363       5.81411536
C        2.13787792       8.68040125       9.12829876
C        5.38621285       2.47857474       3.99498478
C        2.09726011       9.00187302       7.19072623
C        0.82952487       0.46106958       2.74757148
C        3.87939756      10.53314901       5.87822256
C        6.59405073       9.12775388      10.17877077
C       10.34312542       4.00640373       6.83082804
C       11.50366471       7.12190457       5.45190733
C        1.80104268       3.86411702       2.86693738
C        9.87751906       3.81917565       2.65242939
C        3.95465126       8.51845121       0.75544505
C        8.46188952       0.65461480      11.82773062
C        1.03615687       5.66123889       0.12128485
C        6.07442944       0.76102304       0.78145750
C        2.95826526       7.40794681       9.11670214
C        3.44037224       0.10071274       5.41472468
C        6.25355528       4.17023718       5.35879079
C        0.83309270       4.50835172       7.88936675
C        0.39235690       0.02712853       7.87211988
C       10.50419890      10.63668948       3.94300726
C        8.71810509       8.79925779       5.13902345
C        8.91793666       8.98892602       0.92511590
C        8.58600541       5.61159490       6.60079076
C        4.80837151       9.73552849       3.51714215
C        1.61193119       6.90654371       7.01395762
C        4.16998843       3.25803630       1.47871804
C        7.50259140       3.14715169       8.20161098
C        9.45288587       6.33909077       7.51833391
C       10.63093263       8.81828147      10.53182233
C        4.81803734       9.13822519       8.30054359
C       11.13780829       3.44429306       3.45533295
C        8.00577131       3.13505756       0.27723994
C        7.88995902       5.84777993       9.35631049
C        7.35792377       3.98719052      11.06616743
C        7.37637887       4.59789095       2.28958170
C        9.48634907       5.20549973       3.28717593
C       10.27335613       3.91268308       1.35588145
C        2.04324517       1.75826902       4.60184730
C        6.40472602       8.22383291       5.65451071
C        5.95611778       3.86082401      10.17282439
C        1.72131143       4.89460588       5.43881818
C        0.29349299       6.21908522       6.79853753
C       10.88858149       6.05217197       2.35570261
C        5.23779023       5.71810856       3.95113319
C       11.43239105       4.57961353       4.36791289
C        7.79320596       2.26865091       1.66332829
C        3.12934809       2.70200230       5.23113313
C        8.49838513       7.86216976       9.29557922
C        8.35432162      10.31361858       3.03083006
C       10.29179939       8.60722049       0.11709774
C       10.20042413       9.95189621       7.07815958
C        9.77541189       9.86488004       8.41527795
C        7.21685714      10.94221738       2.75643183
C        7.27915199       7.98407057       9.59916447
C        2.20800257      10.13628139       3.47056611
C        1.73562065      11.51764226       7.87896651
C        2.19306554       5.35277334      11.34026953
C        6.86232491       0.04801797      10.34035361
C        5.68706181       3.23985364       1.35027858
C        3.20373707       2.57492507       1.07117063
C       10.92113260       0.52022186       1.19407355
C       11.36632937       0.71976795       7.01990400
C        2.77151100       1.29974619       0.61595385
C        6.38670920       7.19141326       2.32110226
C        9.64897430       8.04277627       4.15044355
C        8.67260699       1.14134858       1.35332285
C        9.43871880      11.33330445       3.05668852
C        3.21395964       8.57479968      11.19043732
C        2.33904801       6.23975541       8.40355102
C        3.46232173       6.32505399      11.70614964
C        8.00410111       3.10748152       4.11499033
C       10.52916897       4.98306718       7.96875449
C        8.14632859       1.28402737       6.33514626
C        6.23198484       2.60247742       7.32074112
C        5.68295147       9.31961350       5.68096144
C       10.96789816       5.09679467       1.21070447
C       11.69090463       4.39474268       8.68801783
C        6.35034388       0.19540850       3.51575624
C        7.34901604      11.45110676       7.70859441
C        3.53695947      11.05465372       9.30132423
C       11.10733013       1.82840551       8.03032678
C       10.66315206       5.77217087       3.75786396
C       10.49315901       7.05985847       4.51947453
C        2.76179778      10.69017137       0.44943979
C        5.01035893       6.37527841       2.64931405
C        9.17609487       4.38633246       6.18763574
C        6.41757826       3.41428871       8.91985561
C        6.34565311       1.85296099       1.76474844
C        3.22033245       9.73518497       8.73641805
C        8.71250223       2.57196372       7.95085612
C        2.17636356       9.50386839      11.18539119
C        5.11586573       5.54381563       7.71886435
C        5.53926701      11.78779984      10.47892086
C        5.33489866       3.47390651       6.34245486
C        0.37229793       0.28699698       1.47541318
C        3.30114164       7.28654351      10.69100055
C        3.12536804       6.59017729       3.66016327
C        2.35747942       0.45878224       4.54930120
C        2.71181028      10.23952573       7.25626672
C        7.21795876      11.83553673      11.79407789
C       10.10150336       1.49224547       4.81440081
C        4.43202009       9.58686897       4.88267758
C        5.40171845       8.62733394       0.64232048
C        5.31425216       5.53274020       1.25864272
C        8.89293106       2.21320269       5.22599223
C        0.64098077       1.63959015       3.64278609
C        1.29075555       9.06226077      10.16084871
C        6.28011262       9.37387719      11.65686101
C        1.07173684       4.66362096       4.06263375
C        1.17582930       1.12691025       0.59528129
C        7.13144010      10.62062715       1.01286056
C        4.59547449       5.46028201      11.77859598
C        1.15789658       8.96143289       3.08991482
C        5.30964431       6.76372396       8.43566384
C        1.24910719       8.32937525       6.62070284
C        9.49158473       4.81903235      11.01660636
C        5.73234670       1.47586331       3.13805444
C        5.32709255       9.93812003       7.01869577
C        0.55315557       2.96904456       2.79787881
C        4.25327330       7.71446971       8.28160283
C        9.56929042       0.84440148      10.98396049
C        5.35068855       4.74547254      10.92565753
C        8.13939904       9.96897724       4.55791279
C        4.50659860       0.95039632       5.86495573
C        0.37166420       8.50018563       5.40422967
C       10.66902737       0.41317515       5.74949881
C        0.21482071       2.04752136      11.83584471
C        5.46342104       9.70358150       9.36012470
C       10.00855266       0.42907521       9.83444926
C        0.73866844       4.69336471       6.50232011
C        7.78500895       6.85309735       2.61747367
C        6.74153756       1.58588320       6.60607379
C        7.50385885       9.22474385       0.64464218
C        2.09710612       4.87996499       8.72104275
C        3.68340390       6.81369962       2.43006791
C       11.03737131       2.11526508       4.12388621
C        2.70071116       3.40718148       1.94068787
C       11.65158982       4.17929890      10.04153020
C       11.64041962       8.76924160       2.52098120
C       11.32677764       0.91502956       9.13385425
C        6.20817563       4.45637419       1.65462194
C        1.09263683       7.87695280       4.11292923
C        6.53509628       0.06554819       4.87372247
C        9.73658273       0.25651408       1.84988119
C        7.73241547      11.53644087       9.10229815
C        8.83304082       6.64150333       8.76905207
C        7.99341657       6.55175088       5.48779883
C       10.78945935       1.38486709       0.10983108
C        5.84570699       0.45293773       6.13924736
C        2.47201240       3.95751785       9.59050550
C        4.83332972      10.88217314       9.80196923
C        4.96185210       0.13186988       0.08056398
C        8.16421511       3.23896524       2.59955161
C       10.93467187      10.94771363       5.20477716
C        3.50677744       5.29624718       5.73594770
C        2.60126919       1.50020556       9.33729865
C        6.04044504      11.09493986       7.17674868
C        1.97168723       3.94556586      11.04360198
C        3.13026018       7.10269136       1.27128174
C        1.66778216      11.45852196       3.64867325
C        7.66939804       7.87737923       5.39706322
C        0.63315334       3.18369469      10.95144493
C       11.74151994       9.43061656      10.17278886
C        9.24219209       3.85844309       0.26061613
C        8.28214772       5.15949227      10.57790086
C        9.72210767       8.67473915       9.39074501
C        6.65449771       3.20943470       4.34124894
C        3.89079282       5.59714353       4.38568096
C       11.00973604       7.57706330       0.60041626
C       10.89079658       6.28232771       7.59792302
C        7.51135698       6.02316263       4.43833368
C       11.40134431       4.21423093       5.90960097
C       11.47550824       5.85144016       0.08033182
C        7.73884751      11.22138930       5.23520794
C        6.51431948       6.84796830       9.18407866
C       10.06985250       2.69006216       7.53126906
C        6.24687448       5.44818788       4.89136024
C        9.14331871       9.20733114       2.49171127
C        3.56280609       9.79014754       2.81621546
C       11.12207763       9.62964264       5.86810661
C        8.10603060       5.54106750       3.09252080
C        2.24934294       7.22507783       4.54491841
C        6.26896612       8.51597552       1.81008071
C        9.76655154      11.12696977       6.36184575
C       11.06860758       7.46012571       1.91164300
C       10.85138700       4.96740758      10.77334963
C        2.70112575       2.68588074       9.81891997
C       10.60362903       9.34129055       3.19928321
C        4.69377930       4.62235166       6.80705436
C        9.11081498      11.11771853       9.16867966
C        3.49533480       0.13322973       0.43730064
C        3.41811477       9.89955147       1.39844190
C        6.00232661       9.56147247       2.79742869
C        2.38345634       0.23551933       8.90588990
C        8.64050601       7.97789913       2.96166488
C        4.44682681       2.47224931       5.31746226
C        2.81142993       3.93518930       5.60136049
