200
Lattice="14.924243904017414 0.0 0.0 0.0 14.924243904017414 0.0 0.0 0.0 14.924243904017414" Properties=species:S:1:pos:R:3 timestep=5000 pbc="T T T"
C        8.80710974      11.69023487       9.40307957
C        0.23688357      13.70430636       4.16253579
C        2.56458207      13.75015364       7.73208660
C        1.59528228      14.57947895      14.54660084
C        2.69637807      14.82552003       6.99318728
C        5.37893629       6.73853491       7.10664139
C       10.52320377       9.67868558       9.87607363
C       10.45295535       6.61611134       4.48209370
C        4.10774889      10.17649866       0.65189993
C        2.87891650       8.54481615       5.76457875
C        9.15657583       3.79019083      13.22916321
C       13.79216538       0.96004527      14.90448421
C       12.54567761       6.46571973      10.32441284
C       11.00025723       3.00877234       7.29977603
C       10.34759019       2.05027770      11.42918000
C        7.21045443       4.27960156      11.37539302
C       10.99995874      12.14209620      11.03623958
C       11.08586269       0.87281605      11.60155501
C        7.48709021       6.29501623       5.37131000
C        9.22086947       9.95238129       7.22854261
C        1.00458966       6.40693314       3.28703487
C        4.74962570       5.58045836       7.46455460
C        0.93628438       1.88461860       4.48619787
C        9.95250068       6.31250744       9.78614014
C        5.24834916       9.52344360       3.02051772
C        0.43724453       3.92882213       3.98478805
C        7.18382958       8.07586656      13.87592024
C        0.78273480      11.33181423      14.10385822
C        8.36523272      13.35125845       1.98883459
C       10.69992174       8.75505397       0.15873426
C       10.71209993      10.37658800       8.51850471
C        8.29196961       4.92270215       2.00904202
C        8.65125586       4.75052115      11.26513271
C        0.24127876      13.63172976      12.98500258
C       10.32350246      13.56551089       0.60604220
C        6.00296370       5.71900011       1.26729963
C        6.48103201       6.62669263       6.46451087
C        6.57935293       8.94345763      13.05998198
C       10.08013282       7.65127182       9.19772197
C        4.76954956       9.43831571       4.31246475
C        8.87220929       3.08942296       6.34583328
C       11.51208417       5.47937645       9.96578326
C        1.05267707      12.08938377       2.31613818
C       12.40676275       0.78134536      12.07010165
C        4.32917990       9.54109898      12.13964863
C       11.83226890      13.21431358      11.43777636
C        4.05175313       3.51189845       8.68001488
C        1.44767255      14.57853872       0.88768358
C        2.87563316       1.24773246       3.47800550
C        5.06655694       3.37040170       9.97864796
C        6.09816545       8.35075621       0.29068398
C        3.93209054       2.75898527      12.04423794
C        4.43985809       5.92235786       0.58825251
C        1.63960728      10.80261547       5.50722509
C        5.28098848       9.38728972      13.26538435
C       13.50317232       5.34304348       5.81976861
C        2.50660138      11.94158899       5.90980657
C        2.63529314      10.49399703       0.66015154
C        8.28626855      14.34418332      14.58140417
C        6.33607283       8.21896021       9.05741916
C        4.07160237       1.34417143      12.15217007
C        8.68935745      11.94079800      14.47563606
C        3.20347403       0.40557081      11.89272701
C       11.46941576       6.50820905       5.06309452
C        0.80984619       7.62172182       3.56435717
C        9.50259443       2.27996182       2.92589802
C       11.44834273       6.89908993       7.11256631
C        8.00761799      14.63334054       2.58147632
C       10.43543429       7.63230311       7.50981984
C        2.45912737       9.99927326      13.22616343
C        6.91932720       4.95592352      10.20036253
C        0.56743319      11.10399565       9.89411704
C        8.01578155      10.15814184       4.65351357
C       14.30997695      10.75588766       7.11678987
C        1.56358319       2.95009022       8.55174100
C        8.94775581      11.72936624      11.96316944
C        9.83116658       8.25082347      13.87009978
C        1.71000494       0.79644720      12.44113328
C       13.17058555      10.48556483       8.17273983
C       14.11432011      11.05216375       9.68517763
C        8.05315186       2.85611225      13.83378910
C        9.97391697       4.48945135      14.65463744
C        8.80005057      13.18294282       0.40702592
C        9.16903758       0.54491847      14.81146139
C       14.30244021      13.79943349      11.85196890
C        0.30462023      10.85752176       6.23363282
C       14.29808233       5.69591231       4.84363351
C        8.00367799      10.00178054       6.03073772
C        0.58027848       5.48121213       4.19569746
C        7.28659792      14.50476818      12.26866872
C        7.11429752       5.07145209       1.50361757
C        2.38341668       5.19420400       9.45668745
C        7.68523940       8.78899170       3.92015115
C        8.97311210       1.14003613      10.87487865
C        8.60314010       7.82927328      13.94330320
C        7.71465508      12.38404805       9.22501841
C        1.26502518       2.12128726      12.47408601
C        4.55335697      10.41997278       2.00134111
C        7.64170538      10.25443306       1.16884290
C        8.93457770       8.36418803       3.08816932
C        2.32610758      11.37737795       1.72397403
C        9.56166458       2.24551666       7.29694042
C       11.96231876       3.39044496       6.33795328
C        0.39711324      12.46092283      13.71527568
C        9.57305178       2.69045315       8.66613533
C        3.56017838      12.15930386       4.98705549
C        1.82669761      10.76297667       9.74065104
C        6.33978896       3.29221358      12.06892264
C        8.49490948      12.31048645      13.03872985
C        9.41679495       8.52462365       7.02040911
C       10.38170701       9.16463492       1.35717194
C        7.98185875      13.69662037      13.23837146
C        5.97508521       8.53526463      10.38925868
C        2.49239350       3.44306784      12.09921885
C       13.41664156      11.60330115      10.70308568
C        0.45182551      12.72123149       3.17261069
C        2.56922351       3.81002515       8.78821564
C        8.10083482       0.80998498       3.13021092
C        4.78720494       1.34398637       0.01046780
C        6.91450667      14.07912874      10.80203342
C        8.77226163       5.77286171      10.17484207
C        5.27342189       6.97554683       0.71764272
C        7.75689069       0.32752895      11.13714239
C       14.86129344      14.67823267       4.91865768
C        9.44643450       4.46348317       1.28164332
C        8.31325158       4.49949537       3.42193511
C        6.54911641       2.67045466      13.51203732
C       13.25583283      12.93617045      11.56566221
C       11.95149869      10.34633656       7.89962616
C       12.44201381       8.54793532      11.05653655
C        3.83650076       1.19679004       1.10929069
C        9.34794941       1.92030246       9.87977484
C        7.49922362       7.76375585       5.21114302
C        8.98345460       3.26145472       3.83356068
C        9.48520768      10.97987071       8.07923944
C       11.71105419       9.64983702      10.79739198
C       12.38576433       1.90518420      12.93140962
C        1.57634341       9.45794109       5.24943863
C       10.87463987       3.35870109       8.68191025
C        6.89323962       8.89261073       1.29047251
C        3.78504197       9.28347668       5.19271158
C        4.79474169       9.02031749      10.85240274
C        0.80273031       8.85610603       4.12500132
C        0.18716793       2.63915852       3.70413764
C        2.46326138       4.81218813      11.85928178
C        9.47937230       9.41786949       2.30661652
C       10.96520018       0.82057523       1.39374380
C        8.16645672       8.59761813       6.18332319
C        2.91652559       9.97273796      12.00131581
C        3.42269625       1.29785852       2.44105411
C        7.81737865       4.91182238       4.79054797
C        8.27067271      11.36931885       4.01283070
C        8.67110510      12.03489536       2.90500408
C        3.99213077       8.05095800       8.54708464
C        2.42741335       5.59151722      10.67978894
C        1.97489535      10.60948082      14.36192824
C        8.72763814       1.81235541      14.52642326
C        6.68935953      12.99337508       9.61906323
C        2.42341365      12.88745772       6.75569779
C        0.46627517       1.53622705       6.85660060
C       12.02964203      11.08589254      10.91462192
C        5.32280621       7.48680665       8.50189402
C       10.43977725       2.06278422       1.96526921
C        5.99081537       4.48430249       9.54835216
C       13.91891699       1.89314034      13.78943425
C        3.58959407      11.64347722       2.45003850
C        1.09531712      14.61308834      13.22193987
C        9.53841261       8.77860443       9.66685066
C       11.47659432      12.83887930       0.76768520
C       12.84316256       4.18028072       6.05701931
C       11.72415768       4.30706217       9.31451911
C        5.07218338       4.66540819       8.35200984
C        8.43280970       3.46530496       5.18936854
C       12.39885290       6.41467882       6.15489250
C       13.04258031       7.39849990      11.01776337
C        0.63427440       0.86985956       5.49825562
C        2.50366131       1.64929312       4.68603349
C        0.93493374       2.15868741       7.75977107
C       10.39567611       3.41678625       1.35104255
C        2.30624341       0.51818617       5.72756663
C       10.25628367       3.15614925      12.49071162
C        5.19697991       9.44638972      14.73564623
C        9.57712610      12.17845166      10.73372516
C        6.55938429       8.91592240       2.82348786
C        8.02479580      10.84014994      14.74272033
C        9.64535974       7.04224327       3.47151345
C       11.11572610       3.77777386      14.80519321
C        5.67339162       1.63301077      14.09267996
C       14.91663254       2.19710241      13.04199826
C        3.82756114       8.99946832       9.70620589
C       13.35585511      14.70857366       0.74300348
C        2.49901987       0.46556925       0.66049032
C        2.68457299       9.81792878      10.31453299
C        5.11631437       3.20169804      11.46860985
C       10.34617239       0.00763165       0.42303814
C        3.75137287      12.38745077       3.63145657
C       12.52555973      12.16284090       0.77428470
C        8.73123488      10.69977250       2.16013506
C       12.36046774       0.78494210       0.75158045
C       11.37778090       2.83248717      13.36010852
